 Q-Chem 6.0, Q-Chem, Inc., Pleasanton, CA (2022)
 Q-Chem 6.0.1 for Intel X86 EM64T Linux

User input:
--------------------------------------------------------------
$molecule
0  1
O   1.386977   0.011218   0.109098
H   1.748442   0.720970  -0.431026
H   1.741280  -0.793653  -0.281811
O  -1.511955  -0.009629  -0.120521
H  -0.558095   0.008225   0.047352
H  -1.910308   0.077777   0.749067
$end

$rem
JOBTYPE              aimd
AIMD_METHOD          bomd
METHOD               b3lyp
BASIS                6-31g*
TIME_STEP            20        (20 a.u. = 0.48 fs)
AIMD_STEPS           1000
AIMD_INIT_VELOC      thermal
AIMD_TEMP            298
FOCK_EXTRAP_ORDER    6         request Fock matrix extrapolation
FOCK_EXTRAP_POINTS   12
$end
--------------------------------------------------------------

   10    -152.8293601030      6.94e-09  Convergence criterion met
 Total energy in the final basis set =     -152.8293601030

                    Orbital Energies (a.u.)
 --------------------------------------------------------------

 Alpha MOs
 -- Occupied --
-19.1722 -19.0981  -1.0337  -0.9628  -0.5522  -0.4893  -0.4087  -0.3420
 -0.3197  -0.2582

          Ground-State Mulliken Net Atomic Charges

     Atom                 Charge (a.u.)
  ----------------------------------------
      1 O                    -0.763320
      2 H                     0.407459
      3 H                     0.407498
      4 O                    -0.834650
      5 H                     0.408996
      6 H                     0.374017
  ----------------------------------------
  Sum of atomic charges =     0.000000

                    Cartesian Multipole Moments
 -----------------------------------------------------------------
    Charge (ESU x 10^10)
                 0.0000
    Dipole Moment (Debye)
         X       2.9637      Y       0.0125      Z       0.1393
       Tot       2.9670
    Quadrupole Moments (Debye-Ang)
        XX     -10.6070     XY      -0.6359     YY     -11.3838
        XZ      -6.4461     YZ      -0.0730     ZZ     -12.2203

   10    -152.8292713942      7.21e-09  Convergence criterion met
 Total energy in the final basis set =     -152.8292713942
   10    -152.8288445401      7.51e-09  Convergence criterion met
 Total energy in the final basis set =     -152.8288445401
   10    -152.8282801391      7.78e-09  Convergence criterion met
 Total energy in the final basis set =     -152.8282801391
   10    -152.8278049343      8.00e-09  Convergence criterion met
 Total energy in the final basis set =     -152.8278049343
   10    -152.8275660777      8.17e-09  Convergence criterion met
 Total energy in the final basis set =     -152.8275660777
   10    -152.8275876414      8.27e-09  Convergence criterion met
 Total energy in the final basis set =     -152.8275876414
   10    -152.8277910037      8.32e-09  Convergence criterion met
 Total energy in the final basis set =     -152.8252944107
    9    -152.8252690651      1.97e-09  Convergence criterion met
 Total energy in the final basis set =     -152.8252690651
    9    -152.8255201910      2.45e-09  Convergence criterion met
 Total energy in the final basis set =     -152.8255201910
    9    -152.8259524424      2.37e-09  Convergence criterion met
 Total energy in the final basis set =     -152.8259524424
    9    -152.8263853441      2.52e-09  Convergence criterion met
 Total energy in the final basis set =     -152.8263853441
    9    -152.8266192057      2.84e-09  Convergence criterion met
 Total energy in the final basis set =     -152.8266192057
    9    -152.8265264709      3.04e-09  Convergence criterion met
 Total energy in the final basis set =     -152.8265264709

             Standard Nuclear Orientation (Angstroms)
    I     Atom           X                Y                Z
 ----------------------------------------------------------------
    1      O       0.3931806745     0.5969548802    -1.2981527420
    2      H      -0.0290621989    -0.0284723293    -0.7082827559
    3      H       0.4204852585     1.4046601885    -0.7683568474
    4      O      -0.4098529795    -0.5866605729     1.1690445581
    5      H      -1.1205623642    -0.2552240699     1.7435626659
    6      H       0.0315775922    -1.2458020476     1.6844033834
 ----------------------------------------------------------------

    9    -152.8261272352      3.00e-09  Convergence criterion met
 Total energy in the final basis set =     -152.8261272352
 Total job time:  1289.08s(wall), 1287.41s(cpu)
        *  Thank you very much for using Q-Chem.  Have a nice day.  *
